<?xml version="1.0" encoding="UTF-8"?>

<!-- generated on Thu Nov 14 17:10:24 2019 by Eclipse SUMO Version 1.3.1
<configuration xmlns:xsi="http://www.w3.org/2001/XMLSchema-instance" xsi:noNamespaceSchemaLocation="http://sumo.dlr.de/xsd/sumoConfiguration.xsd">

    <input>
        <net-file value="pasubio.net.xml"/>
        <route-files value="pasubio.rou.xml"/>
    </input>

    <output>
        <tripinfo-output value="tripinfos.xml"/>
    </output>

    <report>
        <log value="sumo_log.txt"/>
        <message-log value="sumo-0.log"/>
        <no-step-log value="true"/>
    </report>

    <traci_server>
        <remote-port value="59793"/>
    </traci_server>

    <random_number>
        <seed value="23423"/>
    </random_number>

    <gui_only>
        <quit-on-end value="true"/>
    </gui_only>

</configuration>
-->

<tripinfos xmlns:xsi="http://www.w3.org/2001/XMLSchema-instance" xsi:noNamespaceSchemaLocation="http://sumo.dlr.de/xsd/tripinfo_file.xsd">
    <tripinfo id="2" depart="6.00" departLane="2[1][1][0]_0" departPos="2.54" departSpeed="0.00" departDelay="0.00" arrival="24.00" arrivalLane="21_1" arrivalPos="104.70" arrivalSpeed="13.65" duration="18.00" routeLength="147.51" waitingTime="2.00" waitingCount="1" stopTime="0.00" timeLoss="6.73" rerouteNo="0" devices="tripinfo_2" vType="DEFAULT_VEHTYPE" speedFactor="1.01" vaporized=""/>
    <tripinfo id="4" depart="12.00" departLane="65_0" departPos="5.10" departSpeed="0.00" departDelay="0.00" arrival="40.00" arrivalLane="5[1][0]+66_0" arrivalPos="47.03" arrivalSpeed="14.36" duration="28.00" routeLength="321.04" waitingTime="0.00" waitingCount="0" stopTime="0.00" timeLoss="6.43" rerouteNo="0" devices="tripinfo_4" vType="DEFAULT_VEHTYPE" speedFactor="1.08" vaporized=""/>
    <tripinfo id="11" depart="33.00" departLane="39[1][0]_0" departPos="5.10" departSpeed="0.00" departDelay="0.00" arrival="64.00" arrivalLane="96_0" arrivalPos="219.83" arrivalSpeed="10.72" duration="31.00" routeLength="309.53" waitingTime="0.00" waitingCount="0" stopTime="0.00" timeLoss="4.63" rerouteNo="0" devices="tripinfo_11" vType="DEFAULT_VEHTYPE" speedFactor="0.86" vaporized=""/>
    <tripinfo id="27" depart="84.00" departLane="101_0" departPos="5.10" departSpeed="0.00" departDelay="3.00" arrival="94.00" arrivalLane="101_0" arrivalPos="97.84" arrivalSpeed="13.00" duration="10.00" routeLength="92.74" waitingTime="0.00" waitingCount="0" stopTime="0.00" timeLoss="3.22" rerouteNo="0" devices="tripinfo_27" vType="DEFAULT_VEHTYPE" speedFactor="1.01" vaporized=""/>
    <tripinfo id="0" depart="0.00" departLane="56[1][0]_0" departPos="5.10" departSpeed="0.00" departDelay="0.00" arrival="106.00" arrivalLane="5[1][1][1]_1" arrivalPos="95.83" arrivalSpeed="14.25" duration="106.00" routeLength="484.70" waitingTime="61.00" waitingCount="1" stopTime="0.00" timeLoss="72.26" rerouteNo="0" devices="tripinfo_0" vType="DEFAULT_VEHTYPE" speedFactor="1.06" vaporized=""/>
    <tripinfo id="1" depart="3.00" departLane="52_0" departPos="5.10" departSpeed="0.00" departDelay="0.00" arrival="108.00" arrivalLane="39[1][0]_0" arrivalPos="83.73" arrivalSpeed="12.52" duration="105.00" routeLength="751.73" waitingTime="31.00" waitingCount="2" stopTime="0.00" timeLoss="46.98" rerouteNo="0" devices="tripinfo_1" vType="DEFAULT_VEHTYPE" speedFactor="0.94" vaporized=""/>
    <tripinfo id="8" depart="24.00" departLane="30_0" departPos="5.10" departSpeed="0.00" departDelay="0.00" arrival="143.00" arrivalLane="26.-170_0" arrivalPos="161.17" arrivalSpeed="13.81" duration="119.00" routeLength="1182.37" waitingTime="23.00" waitingCount="1" stopTime="0.00" timeLoss="37.26" rerouteNo="0" devices="tripinfo_8" vType="DEFAULT_VEHTYPE" speedFactor="1.05" vaporized=""/>
    <tripinfo id="24" depart="72.00" departLane="38[0]_0" departPos="5.10" departSpeed="0.00" departDelay="0.00" arrival="148.00" arrivalLane="42_1" arrivalPos="47.84" arrivalSpeed="5.41" duration="76.00" routeLength="685.09" waitingTime="18.00" waitingCount="1" stopTime="0.00" timeLoss="33.40" rerouteNo="0" devices="tripinfo_24" vType="DEFAULT_VEHTYPE" speedFactor="1.16" vaporized=""/>
    <tripinfo id="31" depart="93.00" departLane="38[0]_0" departPos="5.10" departSpeed="0.00" departDelay="0.00" arrival="149.00" arrivalLane="41_0" arrivalPos="161.93" arrivalSpeed="12.95" duration="56.00" routeLength="633.87" waitingTime="0.00" waitingCount="0" stopTime="0.00" timeLoss="9.05" rerouteNo="0" devices="tripinfo_31" vType="DEFAULT_VEHTYPE" speedFactor="0.98" vaporized=""/>
</tripinfos>
