<?xml version="1.0" encoding="UTF-8"?>

<!-- generated on Sun Nov 17 11:14:22 2019 by Eclipse SUMO Version 1.3.1
<configuration xmlns:xsi="http://www.w3.org/2001/XMLSchema-instance" xsi:noNamespaceSchemaLocation="http://sumo.dlr.de/xsd/sumoConfiguration.xsd">

    <input>
        <net-file value="Obstacles_Night/pasubio.net.xml"/>
        <route-files value="Obstacles_Night/pasubio.rou.xml"/>
        <additional-files value="Obstacles_Night/pasubio.poly.xml"/>
    </input>

    <output>
        <tripinfo-output value="Obstacles_Night/tripinfos.xml"/>
    </output>

    <report>
        <log value="Obstacles_Night/sumo_log.txt"/>
        <message-log value="sumo-2.log"/>
        <no-step-log value="true"/>
    </report>

    <traci_server>
        <remote-port value="53127"/>
    </traci_server>

    <random_number>
        <seed value="23423"/>
    </random_number>

    <gui_only>
        <quit-on-end value="true"/>
    </gui_only>

</configuration>
-->

<tripinfos xmlns:xsi="http://www.w3.org/2001/XMLSchema-instance" xsi:noNamespaceSchemaLocation="http://sumo.dlr.de/xsd/tripinfo_file.xsd">
    <tripinfo id="5" depart="60.00" departLane="2[0]_0" departPos="5.10" departSpeed="0.00" departDelay="0.00" arrival="107.00" arrivalLane="2[1][0]_0" arrivalPos="289.38" arrivalSpeed="11.47" duration="47.00" routeLength="478.24" waitingTime="0.00" waitingCount="0" stopTime="0.00" timeLoss="4.78" rerouteNo="0" devices="tripinfo_5" vType="DEFAULT_VEHTYPE" speedFactor="0.83" vaporized=""/>
    <tripinfo id="3" depart="36.00" departLane="39[1][0]_0" departPos="5.10" departSpeed="0.00" departDelay="0.00" arrival="161.00" arrivalLane="2[1][0]_0" arrivalPos="289.38" arrivalSpeed="14.76" duration="125.00" routeLength="937.86" waitingTime="46.00" waitingCount="2" stopTime="0.00" timeLoss="62.01" rerouteNo="0" devices="tripinfo_3" vType="DEFAULT_VEHTYPE" speedFactor="1.08" vaporized=""/>
    <tripinfo id="4" depart="48.00" departLane="5[1][1][1]_0" departPos="5.10" departSpeed="0.00" departDelay="0.00" arrival="164.00" arrivalLane="1[1]_0" arrivalPos="487.22" arrivalSpeed="14.22" duration="116.00" routeLength="1282.55" waitingTime="13.00" waitingCount="1" stopTime="0.00" timeLoss="26.19" rerouteNo="0" devices="tripinfo_4" vType="DEFAULT_VEHTYPE" speedFactor="1.03" vaporized=""/>
    <tripinfo id="7" depart="84.00" departLane="34[1][2]_0" departPos="5.10" departSpeed="0.00" departDelay="0.00" arrival="166.00" arrivalLane="15_0" arrivalPos="321.76" arrivalSpeed="11.79" duration="82.00" routeLength="827.88" waitingTime="2.00" waitingCount="1" stopTime="0.00" timeLoss="14.65" rerouteNo="0" devices="tripinfo_7" vType="DEFAULT_VEHTYPE" speedFactor="0.89" vaporized=""/>
    <tripinfo id="1" depart="12.00" departLane="34[0]_0" departPos="5.10" departSpeed="0.00" departDelay="0.00" arrival="196.00" arrivalLane="16[1]_0" arrivalPos="225.26" arrivalSpeed="12.20" duration="184.00" routeLength="1778.83" waitingTime="30.00" waitingCount="1" stopTime="0.00" timeLoss="47.18" rerouteNo="0" devices="tripinfo_1" vType="DEFAULT_VEHTYPE" speedFactor="0.94" vaporized=""/>
    <tripinfo id="2" depart="24.00" departLane="67_0" departPos="5.10" departSpeed="0.00" departDelay="0.00" arrival="242.00" arrivalLane="11[0]_0" arrivalPos="95.83" arrivalSpeed="13.67" duration="218.00" routeLength="1861.77" waitingTime="63.00" waitingCount="2" stopTime="0.00" timeLoss="85.00" rerouteNo="0" devices="tripinfo_2" vType="DEFAULT_VEHTYPE" speedFactor="1.01" vaporized=""/>
    <tripinfo id="6" depart="72.00" departLane="24_0" departPos="5.10" departSpeed="0.00" departDelay="0.00" arrival="246.00" arrivalLane="10_0" arrivalPos="227.64" arrivalSpeed="14.12" duration="174.00" routeLength="1244.53" waitingTime="68.00" waitingCount="2" stopTime="0.00" timeLoss="87.77" rerouteNo="0" devices="tripinfo_6" vType="DEFAULT_VEHTYPE" speedFactor="1.05" vaporized=""/>
    <tripinfo id="0" depart="0.00" departLane="12_0" departPos="5.10" departSpeed="0.00" departDelay="0.00" arrival="251.00" arrivalLane="15_0" arrivalPos="321.76" arrivalSpeed="14.64" duration="251.00" routeLength="1989.20" waitingTime="89.00" waitingCount="3" stopTime="0.00" timeLoss="115.69" rerouteNo="0" devices="tripinfo_0" vType="DEFAULT_VEHTYPE" speedFactor="1.06" vaporized=""/>
    <tripinfo id="17" depart="204.00" departLane="39[0]_0" departPos="5.10" departSpeed="0.00" departDelay="0.00" arrival="253.00" arrivalLane="55_0" arrivalPos="98.64" arrivalSpeed="15.35" duration="49.00" routeLength="611.20" waitingTime="0.00" waitingCount="0" stopTime="0.00" timeLoss="9.37" rerouteNo="0" devices="tripinfo_17" vType="DEFAULT_VEHTYPE" speedFactor="1.12" vaporized=""/>
    <tripinfo id="19" depart="228.00" departLane="53_0" departPos="5.10" departSpeed="0.00" departDelay="0.00" arrival="278.00" arrivalLane="38[1][1]a_0" arrivalPos="96.75" arrivalSpeed="12.80" duration="50.00" routeLength="574.40" waitingTime="0.00" waitingCount="0" stopTime="0.00" timeLoss="8.07" rerouteNo="0" devices="tripinfo_19" vType="DEFAULT_VEHTYPE" speedFactor="0.99" vaporized=""/>
    <tripinfo id="10" depart="120.00" departLane="67_0" departPos="5.10" departSpeed="0.00" departDelay="0.00" arrival="299.00" arrivalLane="15_0" arrivalPos="321.76" arrivalSpeed="12.89" duration="179.00" routeLength="1315.08" waitingTime="53.00" waitingCount="3" stopTime="0.00" timeLoss="77.45" rerouteNo="0" devices="tripinfo_10" vType="DEFAULT_VEHTYPE" speedFactor="0.94" vaporized=""/>
    <tripinfo id="22" depart="264.00" departLane="38[0]a_0" departPos="5.10" departSpeed="0.00" departDelay="0.00" arrival="306.00" arrivalLane="46_0" arrivalPos="215.04" arrivalSpeed="12.77" duration="42.00" routeLength="285.92" waitingTime="10.00" waitingCount="1" stopTime="0.00" timeLoss="19.54" rerouteNo="0" devices="tripinfo_22" vType="DEFAULT_VEHTYPE" speedFactor="0.94" vaporized=""/>
    <tripinfo id="14" depart="168.00" departLane="5[1][0]+66_0" departPos="5.10" departSpeed="0.00" departDelay="0.00" arrival="330.00" arrivalLane="51_1" arrivalPos="65.95" arrivalSpeed="13.85" duration="162.00" routeLength="1603.32" waitingTime="25.00" waitingCount="2" stopTime="0.00" timeLoss="55.84" rerouteNo="0" devices="tripinfo_14" vType="DEFAULT_VEHTYPE" speedFactor="1.09" vaporized=""/>
    <tripinfo id="16" depart="192.00" departLane="22[0]_0" departPos="5.10" departSpeed="0.00" departDelay="0.00" arrival="355.00" arrivalLane="40[1]_0" arrivalPos="499.82" arrivalSpeed="14.30" duration="163.00" routeLength="1487.71" waitingTime="41.00" waitingCount="2" stopTime="0.00" timeLoss="60.17" rerouteNo="0" devices="tripinfo_16" vType="DEFAULT_VEHTYPE" speedFactor="1.05" vaporized=""/>
    <tripinfo id="20" depart="241.00" departLane="49[1]_0" departPos="5.10" departSpeed="0.00" departDelay="1.00" arrival="359.00" arrivalLane="42_0" arrivalPos="47.84" arrivalSpeed="12.46" duration="118.00" routeLength="1385.20" waitingTime="0.00" waitingCount="0" stopTime="0.00" timeLoss="9.72" rerouteNo="0" devices="tripinfo_20" vType="DEFAULT_VEHTYPE" speedFactor="0.93" vaporized=""/>
    <tripinfo id="11" depart="132.00" departLane="17[1]_0" departPos="5.10" departSpeed="0.00" departDelay="0.00" arrival="414.00" arrivalLane="53_0" arrivalPos="65.95" arrivalSpeed="11.30" duration="282.00" routeLength="1792.22" waitingTime="101.00" waitingCount="4" stopTime="0.00" timeLoss="130.93" rerouteNo="0" devices="tripinfo_11" vType="DEFAULT_VEHTYPE" speedFactor="0.86" vaporized=""/>
    <tripinfo id="32" depart="384.00" departLane="2[1][0]_0" departPos="5.10" departSpeed="0.00" departDelay="0.00" arrival="414.00" arrivalLane="24_0" arrivalPos="24.40" arrivalSpeed="11.24" duration="30.00" routeLength="320.34" waitingTime="0.00" waitingCount="0" stopTime="0.00" timeLoss="4.04" rerouteNo="0" devices="tripinfo_32" vType="DEFAULT_VEHTYPE" speedFactor="0.89" vaporized=""/>
    <tripinfo id="27" depart="324.00" departLane="2[0]_0" departPos="5.10" departSpeed="0.00" departDelay="0.00" arrival="419.00" arrivalLane="31_0" arrivalPos="184.58" arrivalSpeed="13.80" duration="95.00" routeLength="1228.79" waitingTime="0.00" waitingCount="0" stopTime="0.00" timeLoss="7.49" rerouteNo="0" devices="tripinfo_27" vType="DEFAULT_VEHTYPE" speedFactor="1.02" vaporized=""/>
    <tripinfo id="26" depart="315.00" departLane="46_0" departPos="5.10" departSpeed="0.00" departDelay="3.00" arrival="438.00" arrivalLane="20+19a_0" arrivalPos="36.43" arrivalSpeed="16.02" duration="123.00" routeLength="1408.61" waitingTime="11.00" waitingCount="1" stopTime="0.00" timeLoss="35.35" rerouteNo="0" devices="tripinfo_26" vType="DEFAULT_VEHTYPE" speedFactor="1.16" vaporized=""/>
    <tripinfo id="24" depart="288.00" departLane="52_0" departPos="5.10" departSpeed="0.00" departDelay="0.00" arrival="457.00" arrivalLane="20+19b_0" arrivalPos="54.80" arrivalSpeed="12.56" duration="169.00" routeLength="1700.36" waitingTime="21.00" waitingCount="1" stopTime="0.00" timeLoss="37.61" rerouteNo="0" devices="tripinfo_24" vType="DEFAULT_VEHTYPE" speedFactor="0.94" vaporized=""/>
    <tripinfo id="21" depart="252.00" departLane="48_0" departPos="5.10" departSpeed="0.00" departDelay="0.00" arrival="459.00" arrivalLane="64_0" arrivalPos="71.16" arrivalSpeed="11.89" duration="207.00" routeLength="1275.28" waitingTime="79.00" waitingCount="2" stopTime="0.00" timeLoss="102.13" rerouteNo="0" devices="tripinfo_21" vType="DEFAULT_VEHTYPE" speedFactor="0.88" vaporized=""/>
    <tripinfo id="15" depart="180.00" departLane="2[1][0]_0" departPos="5.10" departSpeed="0.00" departDelay="0.00" arrival="523.00" arrivalLane="53a_0" arrivalPos="257.00" arrivalSpeed="13.31" duration="343.00" routeLength="2800.40" waitingTime="100.00" waitingCount="5" stopTime="0.00" timeLoss="146.42" rerouteNo="0" devices="tripinfo_15" vType="DEFAULT_VEHTYPE" speedFactor="1.03" vaporized=""/>
    <tripinfo id="37" depart="444.00" departLane="38[0]a_0" departPos="5.10" departSpeed="0.00" departDelay="0.00" arrival="531.00" arrivalLane="20+19b_0" arrivalPos="54.80" arrivalSpeed="11.92" duration="87.00" routeLength="807.58" waitingTime="10.00" waitingCount="1" stopTime="0.00" timeLoss="23.49" rerouteNo="0" devices="tripinfo_37" vType="DEFAULT_VEHTYPE" speedFactor="0.92" vaporized=""/>
    <tripinfo id="30" depart="360.00" departLane="20+19a_0" departPos="5.10" departSpeed="0.00" departDelay="0.00" arrival="539.00" arrivalLane="15_0" arrivalPos="321.76" arrivalSpeed="13.43" duration="179.00" routeLength="1584.56" waitingTime="32.00" waitingCount="2" stopTime="0.00" timeLoss="61.95" rerouteNo="0" devices="tripinfo_30" vType="DEFAULT_VEHTYPE" speedFactor="0.98" vaporized=""/>
    <tripinfo id="33" depart="396.00" departLane="39[0]_0" departPos="5.10" departSpeed="0.00" departDelay="0.00" arrival="570.00" arrivalLane="4[1][1][0]_0" arrivalPos="175.47" arrivalSpeed="10.42" duration="174.00" routeLength="1649.87" waitingTime="13.00" waitingCount="1" stopTime="0.00" timeLoss="29.70" rerouteNo="0" devices="tripinfo_33" vType="DEFAULT_VEHTYPE" speedFactor="0.83" vaporized=""/>
    <tripinfo id="28" depart="336.00" departLane="13[1]_0" departPos="5.10" departSpeed="0.00" departDelay="0.00" arrival="575.00" arrivalLane="37_0" arrivalPos="189.56" arrivalSpeed="13.25" duration="239.00" routeLength="1927.87" waitingTime="68.00" waitingCount="3" stopTime="0.00" timeLoss="101.17" rerouteNo="0" devices="tripinfo_28" vType="DEFAULT_VEHTYPE" speedFactor="1.01" vaporized=""/>
    <tripinfo id="35" depart="420.00" departLane="a1[1]_0" departPos="1.92" departSpeed="0.00" departDelay="0.00" arrival="595.00" arrivalLane="96_0" arrivalPos="219.83" arrivalSpeed="11.98" duration="175.00" routeLength="1102.20" waitingTime="71.00" waitingCount="1" stopTime="0.00" timeLoss="83.20" rerouteNo="0" devices="tripinfo_35" vType="DEFAULT_VEHTYPE" speedFactor="0.87" vaporized=""/>
    <tripinfo id="40" depart="480.00" departLane="17[0]_0" departPos="5.10" departSpeed="0.00" departDelay="0.00" arrival="675.00" arrivalLane="21_0" arrivalPos="104.70" arrivalSpeed="12.37" duration="195.00" routeLength="1412.87" waitingTime="69.00" waitingCount="1" stopTime="0.00" timeLoss="85.37" rerouteNo="0" devices="tripinfo_40" vType="DEFAULT_VEHTYPE" speedFactor="0.93" vaporized=""/>
    <tripinfo id="38" depart="456.00" departLane="a1[1]_0" departPos="1.92" departSpeed="0.00" departDelay="0.00" arrival="695.00" arrivalLane="36_0" arrivalPos="189.56" arrivalSpeed="5.05" duration="239.00" routeLength="1684.29" waitingTime="87.00" waitingCount="2" stopTime="0.00" timeLoss="111.14" rerouteNo="0" devices="tripinfo_38" vType="DEFAULT_VEHTYPE" speedFactor="0.95" vaporized=""/>
    <tripinfo id="39" depart="468.00" departLane="52_0" departPos="5.10" departSpeed="0.00" departDelay="0.00" arrival="698.00" arrivalLane="11[0]_1" arrivalPos="95.83" arrivalSpeed="7.98" duration="230.00" routeLength="2002.05" waitingTime="68.00" waitingCount="2" stopTime="0.00" timeLoss="102.38" rerouteNo="0" devices="tripinfo_39" vType="DEFAULT_VEHTYPE" speedFactor="1.13" vaporized=""/>
    <tripinfo id="41" depart="492.00" departLane="25_0" departPos="5.10" departSpeed="0.00" departDelay="0.00" arrival="726.00" arrivalLane="2[1][1][1]_0" arrivalPos="15.62" arrivalSpeed="13.96" duration="234.00" routeLength="1897.91" waitingTime="80.00" waitingCount="4" stopTime="0.00" timeLoss="117.90" rerouteNo="0" devices="tripinfo_41" vType="DEFAULT_VEHTYPE" speedFactor="1.18" vaporized=""/>
    <tripinfo id="44" depart="528.00" departLane="13[0]_0" departPos="5.10" departSpeed="0.00" departDelay="0.00" arrival="726.00" arrivalLane="2[1][1][1]_1" arrivalPos="15.62" arrivalSpeed="14.71" duration="198.00" routeLength="1915.30" waitingTime="48.00" waitingCount="3" stopTime="0.00" timeLoss="80.17" rerouteNo="0" devices="tripinfo_44" vType="DEFAULT_VEHTYPE" speedFactor="1.17" vaporized=""/>
    <tripinfo id="52" depart="624.00" departLane="97_0" departPos="5.10" departSpeed="0.00" departDelay="0.00" arrival="728.00" arrivalLane="64_0" arrivalPos="71.16" arrivalSpeed="13.54" duration="104.00" routeLength="719.27" waitingTime="37.00" waitingCount="2" stopTime="0.00" timeLoss="53.66" rerouteNo="0" devices="tripinfo_52" vType="DEFAULT_VEHTYPE" speedFactor="1.03" vaporized=""/>
    <tripinfo id="53" depart="636.00" departLane="34[1][0]_0" departPos="5.10" departSpeed="0.00" departDelay="0.00" arrival="730.00" arrivalLane="4[0]_0" arrivalPos="135.78" arrivalSpeed="12.75" duration="94.00" routeLength="1099.50" waitingTime="0.00" waitingCount="0" stopTime="0.00" timeLoss="11.15" rerouteNo="0" devices="tripinfo_53" vType="DEFAULT_VEHTYPE" speedFactor="0.96" vaporized=""/>
    <tripinfo id="49" depart="588.00" departLane="26_0" departPos="5.10" departSpeed="0.00" departDelay="0.00" arrival="731.00" arrivalLane="38[0]_0" arrivalPos="64.30" arrivalSpeed="15.72" duration="143.00" routeLength="1139.84" waitingTime="49.00" waitingCount="2" stopTime="0.00" timeLoss="73.08" rerouteNo="0" devices="tripinfo_49" vType="DEFAULT_VEHTYPE" speedFactor="1.18" vaporized=""/>
    <tripinfo id="43" depart="516.00" departLane="34[1][0]_0" departPos="5.10" departSpeed="0.00" departDelay="0.00" arrival="733.00" arrivalLane="16[1]_0" arrivalPos="225.26" arrivalSpeed="13.18" duration="217.00" routeLength="1583.80" waitingTime="79.00" waitingCount="2" stopTime="0.00" timeLoss="103.21" rerouteNo="0" devices="tripinfo_43" vType="DEFAULT_VEHTYPE" speedFactor="1.01" vaporized=""/>
    <tripinfo id="48" depart="576.00" departLane="34[0]_0" departPos="5.10" departSpeed="0.00" departDelay="0.00" arrival="742.00" arrivalLane="98_0" arrivalPos="201.99" arrivalSpeed="13.40" duration="166.00" routeLength="1206.49" waitingTime="61.00" waitingCount="1" stopTime="0.00" timeLoss="76.40" rerouteNo="0" devices="tripinfo_48" vType="DEFAULT_VEHTYPE" speedFactor="0.97" vaporized=""/>
    <tripinfo id="61" depart="732.00" departLane="97_0" departPos="5.10" departSpeed="0.00" departDelay="0.00" arrival="764.00" arrivalLane="38[1][1]a_0" arrivalPos="96.75" arrivalSpeed="11.52" duration="32.00" routeLength="317.44" waitingTime="0.00" waitingCount="0" stopTime="0.00" timeLoss="5.66" rerouteNo="0" devices="tripinfo_61" vType="DEFAULT_VEHTYPE" speedFactor="0.88" vaporized=""/>
    <tripinfo id="45" depart="540.00" departLane="14_0" departPos="5.10" departSpeed="0.00" departDelay="0.00" arrival="770.00" arrivalLane="34[1][1]_0" arrivalPos="189.20" arrivalSpeed="13.04" duration="230.00" routeLength="1630.87" waitingTime="86.00" waitingCount="2" stopTime="0.00" timeLoss="111.20" rerouteNo="0" devices="tripinfo_45" vType="DEFAULT_VEHTYPE" speedFactor="0.99" vaporized=""/>
    <tripinfo id="42" depart="504.00" departLane="26_0" departPos="5.10" departSpeed="0.00" departDelay="0.00" arrival="771.00" arrivalLane="34[1][1]_0" arrivalPos="189.20" arrivalSpeed="15.29" duration="267.00" routeLength="1621.46" waitingTime="130.00" waitingCount="4" stopTime="0.00" timeLoss="165.81" rerouteNo="0" devices="tripinfo_42" vType="DEFAULT_VEHTYPE" speedFactor="1.15" vaporized=""/>
    <tripinfo id="55" depart="660.00" departLane="23_0" departPos="5.10" departSpeed="0.00" departDelay="0.00" arrival="773.00" arrivalLane="14_0" arrivalPos="321.76" arrivalSpeed="14.37" duration="113.00" routeLength="813.88" waitingTime="42.00" waitingCount="1" stopTime="0.00" timeLoss="55.80" rerouteNo="0" devices="tripinfo_55" vType="DEFAULT_VEHTYPE" speedFactor="1.04" vaporized=""/>
    <tripinfo id="50" depart="600.00" departLane="52_0" departPos="5.10" departSpeed="0.00" departDelay="0.00" arrival="801.00" arrivalLane="2[1][0]_0" arrivalPos="289.38" arrivalSpeed="14.50" duration="201.00" routeLength="1610.96" waitingTime="67.00" waitingCount="3" stopTime="0.00" timeLoss="95.02" rerouteNo="0" devices="tripinfo_50" vType="DEFAULT_VEHTYPE" speedFactor="1.10" vaporized=""/>
    <tripinfo id="57" depart="684.00" departLane="38[1][1]a_0" departPos="5.10" departSpeed="0.00" departDelay="0.00" arrival="815.00" arrivalLane="39[1][0]_0" arrivalPos="83.73" arrivalSpeed="14.68" duration="131.00" routeLength="1324.49" waitingTime="24.00" waitingCount="1" stopTime="0.00" timeLoss="42.47" rerouteNo="0" devices="tripinfo_57" vType="DEFAULT_VEHTYPE" speedFactor="1.09" vaporized=""/>
    <tripinfo id="56" depart="672.00" departLane="63[1]_0" departPos="5.10" departSpeed="0.00" departDelay="0.00" arrival="817.00" arrivalLane="11[1][1]_1" arrivalPos="47.03" arrivalSpeed="13.39" duration="145.00" routeLength="1084.29" waitingTime="47.00" waitingCount="2" stopTime="0.00" timeLoss="70.04" rerouteNo="0" devices="tripinfo_56" vType="DEFAULT_VEHTYPE" speedFactor="1.04" vaporized=""/>
    <tripinfo id="47" depart="564.00" departLane="13[1]_0" departPos="5.10" departSpeed="0.00" departDelay="0.00" arrival="820.00" arrivalLane="49[0]_0" arrivalPos="190.09" arrivalSpeed="13.20" duration="256.00" routeLength="2105.98" waitingTime="75.00" waitingCount="2" stopTime="0.00" timeLoss="107.25" rerouteNo="0" devices="tripinfo_47" vType="DEFAULT_VEHTYPE" speedFactor="1.02" vaporized=""/>
    <tripinfo id="54" depart="648.00" departLane="49[0]_0" departPos="5.10" departSpeed="0.00" departDelay="0.00" arrival="851.00" arrivalLane="30_0" arrivalPos="101.57" arrivalSpeed="14.80" duration="203.00" routeLength="1432.05" waitingTime="82.00" waitingCount="2" stopTime="0.00" timeLoss="107.78" rerouteNo="0" devices="tripinfo_54" vType="DEFAULT_VEHTYPE" speedFactor="1.09" vaporized=""/>
    <tripinfo id="71" depart="852.00" departLane="38[1][1]_0" departPos="5.10" departSpeed="0.00" departDelay="0.00" arrival="870.00" arrivalLane="39[1][0]_0" arrivalPos="83.73" arrivalSpeed="13.37" duration="18.00" routeLength="167.18" waitingTime="0.00" waitingCount="0" stopTime="0.00" timeLoss="6.06" rerouteNo="0" devices="tripinfo_71" vType="DEFAULT_VEHTYPE" speedFactor="1.02" vaporized=""/>
    <tripinfo id="65" depart="782.00" departLane="2[1][0]_0" departPos="5.10" departSpeed="0.00" departDelay="2.00" arrival="881.00" arrivalLane="5[1][1][1]_2" arrivalPos="95.83" arrivalSpeed="13.65" duration="99.00" routeLength="1135.70" waitingTime="4.00" waitingCount="1" stopTime="0.00" timeLoss="18.21" rerouteNo="0" devices="tripinfo_65" vType="DEFAULT_VEHTYPE" speedFactor="1.02" vaporized=""/>
    <tripinfo id="58" depart="696.00" departLane="17[1]_0" departPos="5.10" departSpeed="0.00" departDelay="0.00" arrival="887.00" arrivalLane="45_2" arrivalPos="64.30" arrivalSpeed="13.18" duration="191.00" routeLength="1226.88" waitingTime="80.00" waitingCount="2" stopTime="0.00" timeLoss="101.74" rerouteNo="0" devices="tripinfo_58" vType="DEFAULT_VEHTYPE" speedFactor="1.00" vaporized=""/>
    <tripinfo id="60" depart="720.00" departLane="31_0" departPos="5.10" departSpeed="0.00" departDelay="0.00" arrival="896.00" arrivalLane="17[0]_0" arrivalPos="225.26" arrivalSpeed="11.78" duration="176.00" routeLength="1302.27" waitingTime="54.00" waitingCount="1" stopTime="0.00" timeLoss="71.07" rerouteNo="0" devices="tripinfo_60" vType="DEFAULT_VEHTYPE" speedFactor="0.90" vaporized=""/>
    <tripinfo id="69" depart="828.00" departLane="38[1][1]a_0" departPos="5.10" departSpeed="0.00" departDelay="0.00" arrival="918.00" arrivalLane="5[1][1][1]_1" arrivalPos="95.83" arrivalSpeed="11.78" duration="90.00" routeLength="594.44" waitingTime="25.00" waitingCount="2" stopTime="0.00" timeLoss="41.51" rerouteNo="0" devices="tripinfo_69" vType="DEFAULT_VEHTYPE" speedFactor="0.90" vaporized=""/>
    <tripinfo id="51" depart="612.00" departLane="2[1][0]_0" departPos="5.10" departSpeed="0.00" departDelay="0.00" arrival="921.00" arrivalLane="42_0" arrivalPos="47.84" arrivalSpeed="11.67" duration="309.00" routeLength="2389.60" waitingTime="89.00" waitingCount="3" stopTime="0.00" timeLoss="117.80" rerouteNo="0" devices="tripinfo_51" vType="DEFAULT_VEHTYPE" speedFactor="0.90" vaporized=""/>
    <tripinfo id="66" depart="792.00" departLane="51_0" departPos="5.10" departSpeed="0.00" departDelay="0.00" arrival="930.00" arrivalLane="98_0" arrivalPos="201.99" arrivalSpeed="14.03" duration="138.00" routeLength="693.23" waitingTime="77.00" waitingCount="2" stopTime="0.00" timeLoss="92.41" rerouteNo="0" devices="tripinfo_66" vType="DEFAULT_VEHTYPE" speedFactor="1.10" vaporized=""/>
    <tripinfo id="63" depart="756.00" departLane="30_0" departPos="5.10" departSpeed="0.00" departDelay="0.00" arrival="937.00" arrivalLane="13[1]_0" arrivalPos="46.62" arrivalSpeed="11.80" duration="181.00" routeLength="1222.09" waitingTime="55.00" waitingCount="2" stopTime="0.00" timeLoss="77.37" rerouteNo="0" devices="tripinfo_63" vType="DEFAULT_VEHTYPE" speedFactor="0.85" vaporized=""/>
    <tripinfo id="70" depart="840.00" departLane="38[1][1]a_0" departPos="5.10" departSpeed="0.00" departDelay="0.00" arrival="976.00" arrivalLane="17[1]_0" arrivalPos="192.01" arrivalSpeed="15.46" duration="136.00" routeLength="1462.28" waitingTime="22.00" waitingCount="2" stopTime="0.00" timeLoss="43.23" rerouteNo="0" devices="tripinfo_70" vType="DEFAULT_VEHTYPE" speedFactor="1.14" vaporized=""/>
    <tripinfo id="64" depart="768.00" departLane="17[0]_0" departPos="5.10" departSpeed="0.00" departDelay="0.00" arrival="980.00" arrivalLane="46_0" arrivalPos="215.04" arrivalSpeed="15.36" duration="212.00" routeLength="1545.14" waitingTime="82.00" waitingCount="3" stopTime="0.00" timeLoss="116.22" rerouteNo="0" devices="tripinfo_64" vType="DEFAULT_VEHTYPE" speedFactor="1.17" vaporized=""/>
    <tripinfo id="73" depart="876.00" departLane="2[0]_0" departPos="5.10" departSpeed="0.00" departDelay="0.00" arrival="1001.00" arrivalLane="28_0" arrivalPos="191.17" arrivalSpeed="12.96" duration="125.00" routeLength="1476.00" waitingTime="0.00" waitingCount="0" stopTime="0.00" timeLoss="14.48" rerouteNo="0" devices="tripinfo_73" vType="DEFAULT_VEHTYPE" speedFactor="0.97" vaporized=""/>
    <tripinfo id="67" depart="805.00" departLane="48_0" departPos="5.10" departSpeed="0.00" departDelay="1.00" arrival="1002.00" arrivalLane="29[1]_0" arrivalPos="193.50" arrivalSpeed="13.01" duration="197.00" routeLength="1544.81" waitingTime="70.00" waitingCount="1" stopTime="0.00" timeLoss="85.35" rerouteNo="0" devices="tripinfo_67" vType="DEFAULT_VEHTYPE" speedFactor="1.00" vaporized=""/>
    <tripinfo id="68" depart="816.00" departLane="55_0" departPos="5.10" departSpeed="0.00" departDelay="0.00" arrival="1015.00" arrivalLane="101_1" arrivalPos="97.84" arrivalSpeed="13.69" duration="199.00" routeLength="880.53" waitingTime="108.00" waitingCount="3" stopTime="0.00" timeLoss="134.77" rerouteNo="0" devices="tripinfo_68" vType="DEFAULT_VEHTYPE" speedFactor="1.00" vaporized=""/>
    <tripinfo id="83" depart="996.00" departLane="39[1][0]_0" departPos="5.10" departSpeed="0.00" departDelay="0.00" arrival="1050.00" arrivalLane="53_0" arrivalPos="65.95" arrivalSpeed="12.51" duration="54.00" routeLength="590.55" waitingTime="0.00" waitingCount="0" stopTime="0.00" timeLoss="8.26" rerouteNo="0" devices="tripinfo_83" vType="DEFAULT_VEHTYPE" speedFactor="0.94" vaporized=""/>
    <tripinfo id="62" depart="744.00" departLane="43_0" departPos="5.10" departSpeed="0.00" departDelay="0.00" arrival="1068.00" arrivalLane="53a_0" arrivalPos="257.00" arrivalSpeed="10.88" duration="324.00" routeLength="1411.86" waitingTime="180.00" waitingCount="3" stopTime="0.00" timeLoss="203.99" rerouteNo="0" devices="tripinfo_62" vType="DEFAULT_VEHTYPE" speedFactor="0.85" vaporized=""/>
    <tripinfo id="78" depart="936.00" departLane="a1[1]_0" departPos="1.92" departSpeed="0.00" departDelay="0.00" arrival="1088.00" arrivalLane="64_0" arrivalPos="71.16" arrivalSpeed="14.16" duration="152.00" routeLength="1476.24" waitingTime="23.00" waitingCount="2" stopTime="0.00" timeLoss="53.57" rerouteNo="0" devices="tripinfo_78" vType="DEFAULT_VEHTYPE" speedFactor="1.08" vaporized=""/>
    <tripinfo id="80" depart="963.00" departLane="14_0" departPos="5.10" departSpeed="0.00" departDelay="3.00" arrival="1129.00" arrivalLane="2[0]_0" arrivalPos="183.48" arrivalSpeed="15.35" duration="166.00" routeLength="1421.58" waitingTime="56.00" waitingCount="2" stopTime="0.00" timeLoss="74.53" rerouteNo="0" devices="tripinfo_80" vType="DEFAULT_VEHTYPE" speedFactor="1.12" vaporized=""/>
    <tripinfo id="84" depart="1008.00" departLane="38[0]a_0" departPos="5.10" departSpeed="0.00" departDelay="0.00" arrival="1129.00" arrivalLane="4[1][1][0]_0" arrivalPos="175.47" arrivalSpeed="11.52" duration="121.00" routeLength="1327.27" waitingTime="0.00" waitingCount="0" stopTime="0.00" timeLoss="12.12" rerouteNo="0" devices="tripinfo_84" vType="DEFAULT_VEHTYPE" speedFactor="0.88" vaporized=""/>
    <tripinfo id="85" depart="1020.00" departLane="54_0" departPos="5.10" departSpeed="0.00" departDelay="0.00" arrival="1143.00" arrivalLane="26.-170_0" arrivalPos="161.17" arrivalSpeed="11.69" duration="123.00" routeLength="1051.44" waitingTime="26.00" waitingCount="1" stopTime="0.00" timeLoss="38.73" rerouteNo="0" devices="tripinfo_85" vType="DEFAULT_VEHTYPE" speedFactor="0.91" vaporized=""/>
    <tripinfo id="86" depart="1032.00" departLane="5[1][0]+66_0" departPos="5.10" departSpeed="0.00" departDelay="0.00" arrival="1144.00" arrivalLane="3[1]_0" arrivalPos="177.86" arrivalSpeed="11.92" duration="112.00" routeLength="710.38" waitingTime="42.00" waitingCount="2" stopTime="0.00" timeLoss="55.19" rerouteNo="0" devices="tripinfo_86" vType="DEFAULT_VEHTYPE" speedFactor="0.91" vaporized=""/>
    <tripinfo id="81" depart="972.00" departLane="2[1][0]_0" departPos="5.10" departSpeed="0.00" departDelay="0.00" arrival="1180.00" arrivalLane="39[1][0]_0" arrivalPos="83.73" arrivalSpeed="13.20" duration="208.00" routeLength="2226.98" waitingTime="26.00" waitingCount="1" stopTime="0.00" timeLoss="49.36" rerouteNo="0" devices="tripinfo_81" vType="DEFAULT_VEHTYPE" speedFactor="1.02" vaporized=""/>
    <tripinfo id="95" depart="1140.00" departLane="34[1][1]_0" departPos="5.10" departSpeed="0.00" departDelay="0.00" arrival="1187.00" arrivalLane="2[1][1][1]_0" arrivalPos="15.62" arrivalSpeed="13.45" duration="47.00" routeLength="552.42" waitingTime="0.00" waitingCount="0" stopTime="0.00" timeLoss="5.97" rerouteNo="0" devices="tripinfo_95" vType="DEFAULT_VEHTYPE" speedFactor="0.98" vaporized=""/>
    <tripinfo id="82" depart="984.00" departLane="71_0" departPos="5.10" departSpeed="0.00" departDelay="0.00" arrival="1193.00" arrivalLane="55_0" arrivalPos="98.64" arrivalSpeed="12.58" duration="209.00" routeLength="1419.97" waitingTime="75.00" waitingCount="4" stopTime="0.00" timeLoss="104.77" rerouteNo="0" devices="tripinfo_82" vType="DEFAULT_VEHTYPE" speedFactor="0.99" vaporized=""/>
    <tripinfo id="87" depart="1044.00" departLane="38[0]a_0" departPos="5.10" departSpeed="0.00" departDelay="0.00" arrival="1194.00" arrivalLane="33_0" arrivalPos="184.58" arrivalSpeed="13.40" duration="150.00" routeLength="1067.68" waitingTime="53.00" waitingCount="2" stopTime="0.00" timeLoss="75.17" rerouteNo="0" devices="tripinfo_87" vType="DEFAULT_VEHTYPE" speedFactor="1.04" vaporized=""/>
    <tripinfo id="91" depart="1092.00" departLane="41_0" departPos="5.10" departSpeed="0.00" departDelay="0.00" arrival="1205.00" arrivalLane="38[1][0]_0" arrivalPos="201.49" arrivalSpeed="12.11" duration="113.00" routeLength="562.59" waitingTime="55.00" waitingCount="2" stopTime="0.00" timeLoss="69.72" rerouteNo="0" devices="tripinfo_91" vType="DEFAULT_VEHTYPE" speedFactor="0.94" vaporized=""/>
    <tripinfo id="88" depart="1056.00" departLane="22[1]_0" departPos="5.10" departSpeed="0.00" departDelay="0.00" arrival="1214.00" arrivalLane="38[1][1]_0" arrivalPos="83.73" arrivalSpeed="13.34" duration="158.00" routeLength="1047.62" waitingTime="61.00" waitingCount="2" stopTime="0.00" timeLoss="83.64" rerouteNo="0" devices="tripinfo_88" vType="DEFAULT_VEHTYPE" speedFactor="1.02" vaporized=""/>