<?xml version="1.0" encoding="UTF-8"?>

<!-- generated on Sun Nov 17 12:27:55 2019 by Eclipse SUMO Version 1.3.1
<configuration xmlns:xsi="http://www.w3.org/2001/XMLSchema-instance" xsi:noNamespaceSchemaLocation="http://sumo.dlr.de/xsd/sumoConfiguration.xsd">

    <input>
        <net-file value="Obstacles/pasubio.net.xml"/>
        <route-files value="Obstacles/pasubio.rou.xml"/>
        <additional-files value="Obstacles/pasubio.poly.xml"/>
    </input>

    <output>
        <tripinfo-output value="Obstacles/tripinfos.xml"/>
    </output>

    <report>
        <log value="Obstacles/sumo_log.txt"/>
        <message-log value="sumo-2.log"/>
        <no-step-log value="true"/>
    </report>

    <traci_server>
        <remote-port value="38249"/>
    </traci_server>

    <random_number>
        <seed value="23423"/>
    </random_number>

    <gui_only>
        <quit-on-end value="true"/>
    </gui_only>

</configuration>
-->

<tripinfos xmlns:xsi="http://www.w3.org/2001/XMLSchema-instance" xsi:noNamespaceSchemaLocation="http://sumo.dlr.de/xsd/tripinfo_file.xsd">
    <tripinfo id="2" depart="6.00" departLane="2[1][1][0]_0" departPos="2.54" departSpeed="0.00" departDelay="0.00" arrival="24.00" arrivalLane="21_1" arrivalPos="104.70" arrivalSpeed="13.65" duration="18.00" routeLength="147.51" waitingTime="2.00" waitingCount="1" stopTime="0.00" timeLoss="6.73" rerouteNo="0" devices="tripinfo_2" vType="DEFAULT_VEHTYPE" speedFactor="1.01" vaporized=""/>
    <tripinfo id="4" depart="12.00" departLane="65_0" departPos="5.10" departSpeed="0.00" departDelay="0.00" arrival="40.00" arrivalLane="5[1][0]+66_0" arrivalPos="47.03" arrivalSpeed="14.36" duration="28.00" routeLength="321.04" waitingTime="0.00" waitingCount="0" stopTime="0.00" timeLoss="6.43" rerouteNo="0" devices="tripinfo_4" vType="DEFAULT_VEHTYPE" speedFactor="1.08" vaporized=""/>
    <tripinfo id="11" depart="33.00" departLane="39[1][0]_0" departPos="5.10" departSpeed="0.00" departDelay="0.00" arrival="64.00" arrivalLane="96_0" arrivalPos="219.83" arrivalSpeed="10.72" duration="31.00" routeLength="309.53" waitingTime="0.00" waitingCount="0" stopTime="0.00" timeLoss="4.63" rerouteNo="0" devices="tripinfo_11" vType="DEFAULT_VEHTYPE" speedFactor="0.86" vaporized=""/>
    <tripinfo id="27" depart="84.00" departLane="101_0" departPos="5.10" departSpeed="0.00" departDelay="3.00" arrival="94.00" arrivalLane="101_0" arrivalPos="97.84" arrivalSpeed="13.00" duration="10.00" routeLength="92.74" waitingTime="0.00" waitingCount="0" stopTime="0.00" timeLoss="3.22" rerouteNo="0" devices="tripinfo_27" vType="DEFAULT_VEHTYPE" speedFactor="1.01" vaporized=""/>
    <tripinfo id="0" depart="0.00" departLane="56[1][0]_0" departPos="5.10" departSpeed="0.00" departDelay="0.00" arrival="106.00" arrivalLane="5[1][1][1]_1" arrivalPos="95.83" arrivalSpeed="14.25" duration="106.00" routeLength="484.70" waitingTime="61.00" waitingCount="1" stopTime="0.00" timeLoss="72.26" rerouteNo="0" devices="tripinfo_0" vType="DEFAULT_VEHTYPE" speedFactor="1.06" vaporized=""/>
    <tripinfo id="1" depart="3.00" departLane="52_0" departPos="5.10" departSpeed="0.00" departDelay="0.00" arrival="108.00" arrivalLane="39[1][0]_0" arrivalPos="83.73" arrivalSpeed="12.52" duration="105.00" routeLength="751.73" waitingTime="31.00" waitingCount="2" stopTime="0.00" timeLoss="46.98" rerouteNo="0" devices="tripinfo_1" vType="DEFAULT_VEHTYPE" speedFactor="0.94" vaporized=""/>
    <tripinfo id="8" depart="24.00" departLane="30_0" departPos="5.10" departSpeed="0.00" departDelay="0.00" arrival="143.00" arrivalLane="26.-170_0" arrivalPos="161.17" arrivalSpeed="13.81" duration="119.00" routeLength="1182.37" waitingTime="23.00" waitingCount="1" stopTime="0.00" timeLoss="37.26" rerouteNo="0" devices="tripinfo_8" vType="DEFAULT_VEHTYPE" speedFactor="1.05" vaporized=""/>
    <tripinfo id="24" depart="72.00" departLane="38[0]_0" departPos="5.10" departSpeed="0.00" departDelay="0.00" arrival="148.00" arrivalLane="42_1" arrivalPos="47.84" arrivalSpeed="5.41" duration="76.00" routeLength="685.09" waitingTime="18.00" waitingCount="1" stopTime="0.00" timeLoss="33.40" rerouteNo="0" devices="tripinfo_24" vType="DEFAULT_VEHTYPE" speedFactor="1.16" vaporized=""/>
    <tripinfo id="31" depart="93.00" departLane="38[0]_0" departPos="5.10" departSpeed="0.00" departDelay="0.00" arrival="149.00" arrivalLane="41_0" arrivalPos="161.93" arrivalSpeed="12.95" duration="56.00" routeLength="633.87" waitingTime="0.00" waitingCount="0" stopTime="0.00" timeLoss="9.05" rerouteNo="0" devices="tripinfo_31" vType="DEFAULT_VEHTYPE" speedFactor="0.98" vaporized=""/>
    <tripinfo id="15" depart="45.00" departLane="38[1][1]_0" departPos="5.10" departSpeed="0.00" departDelay="0.00" arrival="156.00" arrivalLane="20+19a_0" arrivalPos="36.43" arrivalSpeed="15.53" duration="111.00" routeLength="1097.16" waitingTime="17.00" waitingCount="2" stopTime="0.00" timeLoss="39.86" rerouteNo="0" devices="tripinfo_15" vType="DEFAULT_VEHTYPE" speedFactor="1.12" vaporized=""/>
    <tripinfo id="10" depart="30.00" departLane="26_0" departPos="5.10" departSpeed="0.00" departDelay="0.00" arrival="166.00" arrivalLane="33_0" arrivalPos="184.58" arrivalSpeed="12.90" duration="136.00" routeLength="1016.06" waitingTime="45.00" waitingCount="1" stopTime="0.00" timeLoss="57.60" rerouteNo="0" devices="tripinfo_10" vType="DEFAULT_VEHTYPE" speedFactor="0.94" vaporized=""/>
    <tripinfo id="47" depart="141.00" departLane="16[0]_0" departPos="5.10" departSpeed="0.00" departDelay="0.00" arrival="184.00" arrivalLane="31_0" arrivalPos="184.58" arrivalSpeed="13.91" duration="43.00" routeLength="494.30" waitingTime="0.00" waitingCount="0" stopTime="0.00" timeLoss="7.75" rerouteNo="0" devices="tripinfo_47" vType="DEFAULT_VEHTYPE" speedFactor="1.02" vaporized=""/>
    <tripinfo id="17" depart="51.00" departLane="38[1][1]_0" departPos="5.10" departSpeed="0.00" departDelay="0.00" arrival="185.00" arrivalLane="23_1" arrivalPos="158.08" arrivalSpeed="11.13" duration="134.00" routeLength="1239.08" waitingTime="17.00" waitingCount="2" stopTime="0.00" timeLoss="37.36" rerouteNo="0" devices="tripinfo_17" vType="DEFAULT_VEHTYPE" speedFactor="0.93" vaporized=""/>
    <tripinfo id="18" depart="54.00" departLane="13[0]_0" departPos="5.10" departSpeed="0.00" departDelay="0.00" arrival="185.00" arrivalLane="2[1][1][1]b_0" arrivalPos="324.28" arrivalSpeed="12.02" duration="131.00" routeLength="993.48" waitingTime="37.00" waitingCount="1" stopTime="0.00" timeLoss="49.31" rerouteNo="0" devices="tripinfo_18" vType="DEFAULT_VEHTYPE" speedFactor="0.88" vaporized=""/>
    <tripinfo id="53" depart="159.00" departLane="56[1][0]_0" departPos="5.10" departSpeed="0.00" departDelay="0.00" arrival="186.00" arrivalLane="56[1][1]_0" arrivalPos="97.84" arrivalSpeed="9.71" duration="27.00" routeLength="304.22" waitingTime="0.00" waitingCount="0" stopTime="0.00" timeLoss="5.27" rerouteNo="0" devices="tripinfo_53" vType="DEFAULT_VEHTYPE" speedFactor="1.03" vaporized=""/>
    <tripinfo id="16" depart="48.00" departLane="52_0" departPos="5.10" departSpeed="0.00" departDelay="0.00" arrival="192.00" arrivalLane="23_0" arrivalPos="158.08" arrivalSpeed="13.49" duration="144.00" routeLength="1823.63" waitingTime="0.00" waitingCount="0" stopTime="0.00" timeLoss="11.44" rerouteNo="0" devices="tripinfo_16" vType="DEFAULT_VEHTYPE" speedFactor="0.99" vaporized=""/>
    <tripinfo id="12" depart="36.00" departLane="46_0" departPos="5.10" departSpeed="0.00" departDelay="0.00" arrival="195.00" arrivalLane="21_1" arrivalPos="104.70" arrivalSpeed="14.32" duration="159.00" routeLength="1213.17" waitingTime="58.00" waitingCount="2" stopTime="0.00" timeLoss="78.11" rerouteNo="0" devices="tripinfo_12" vType="DEFAULT_VEHTYPE" speedFactor="1.09" vaporized=""/>
    <tripinfo id="9" depart="27.00" departLane="46_0" departPos="5.10" departSpeed="0.00" departDelay="0.00" arrival="204.00" arrivalLane="67_0" arrivalPos="252.16" arrivalSpeed="11.18" duration="177.00" routeLength="1425.00" waitingTime="47.00" waitingCount="1" stopTime="0.00" timeLoss="61.15" rerouteNo="0" devices="tripinfo_9" vType="DEFAULT_VEHTYPE" speedFactor="0.89" vaporized=""/>
    <tripinfo id="39" depart="117.00" departLane="2[0]_0" departPos="5.10" departSpeed="0.00" departDelay="0.00" arrival="208.00" arrivalLane="15_0" arrivalPos="321.76" arrivalSpeed="9.66" duration="91.00" routeLength="1025.23" waitingTime="12.00" waitingCount="1" stopTime="0.00" timeLoss="28.01" rerouteNo="0" devices="tripinfo_39" vType="DEFAULT_VEHTYPE" speedFactor="1.18" vaporized=""/>
    <tripinfo id="36" depart="108.00" departLane="38[1][0]_0" departPos="5.10" departSpeed="0.00" departDelay="0.00" arrival="227.00" arrivalLane="8_0" arrivalPos="345.67" arrivalSpeed="12.23" duration="119.00" routeLength="1252.41" waitingTime="9.00" waitingCount="1" stopTime="0.00" timeLoss="23.64" rerouteNo="0" devices="tripinfo_36" vType="DEFAULT_VEHTYPE" speedFactor="0.95" vaporized=""/>
    <tripinfo id="43" depart="129.00" departLane="23_0" departPos="5.10" departSpeed="0.00" departDelay="0.00" arrival="228.00" arrivalLane="14_0" arrivalPos="321.76" arrivalSpeed="15.03" duration="99.00" routeLength="813.88" waitingTime="34.00" waitingCount="1" stopTime="0.00" timeLoss="48.52" rerouteNo="0" devices="tripinfo_43" vType="DEFAULT_VEHTYPE" speedFactor="1.17" vaporized=""/>
    <tripinfo id="40" depart="120.00" departLane="38[1][0]_0" departPos="5.10" departSpeed="0.00" departDelay="0.00" arrival="238.00" arrivalLane="29[1]_0" arrivalPos="193.50" arrivalSpeed="15.78" duration="118.00" routeLength="1434.60" waitingTime="10.00" waitingCount="1" stopTime="0.00" timeLoss="28.12" rerouteNo="0" devices="tripinfo_40" vType="DEFAULT_VEHTYPE" speedFactor="1.15" vaporized=""/>
    <tripinfo id="33" depart="99.00" departLane="22[1]_0" departPos="5.10" departSpeed="0.00" departDelay="0.00" arrival="239.00" arrivalLane="39[1][0]_0" arrivalPos="83.73" arrivalSpeed="10.91" duration="140.00" routeLength="1136.17" waitingTime="18.00" waitingCount="2" stopTime="0.00" timeLoss="40.74" rerouteNo="0" devices="tripinfo_33" vType="DEFAULT_VEHTYPE" speedFactor="0.83" vaporized=""/>
    <tripinfo id="14" depart="42.00" departLane="18_0" departPos="5.10" departSpeed="0.00" departDelay="0.00" arrival="241.00" arrivalLane="3[1]_0" arrivalPos="177.86" arrivalSpeed="13.41" duration="199.00" routeLength="2366.76" waitingTime="10.00" waitingCount="1" stopTime="0.00" timeLoss="35.50" rerouteNo="0" devices="tripinfo_14" vType="DEFAULT_VEHTYPE" speedFactor="1.05" vaporized=""/>
    <tripinfo id="70" depart="210.00" departLane="29[1]_0" departPos="5.10" departSpeed="0.00" departDelay="0.00" arrival="242.00" arrivalLane="4[1][1][0]_0" arrivalPos="175.47" arrivalSpeed="14.88" duration="32.00" routeLength="370.43" waitingTime="0.00" waitingCount="0" stopTime="0.00" timeLoss="7.54" rerouteNo="0" devices="tripinfo_70" vType="DEFAULT_VEHTYPE" speedFactor="1.10" vaporized=""/>
    <tripinfo id="35" depart="105.00" departLane="53_0" departPos="5.10" departSpeed="0.00" departDelay="0.00" arrival="251.00" arrivalLane="49[0]_0" arrivalPos="190.09" arrivalSpeed="12.48" duration="146.00" routeLength="1196.95" waitingTime="32.00" waitingCount="2" stopTime="0.00" timeLoss="52.02" rerouteNo="0" devices="tripinfo_35" vType="DEFAULT_VEHTYPE" speedFactor="0.92" vaporized=""/>
    <tripinfo id="51" depart="153.00" departLane="31_0" departPos="5.10" departSpeed="0.00" departDelay="0.00" arrival="253.00" arrivalLane="39[1][1][1]_0" arrivalPos="70.78" arrivalSpeed="14.33" duration="100.00" routeLength="1044.49" waitingTime="3.00" waitingCount="1" stopTime="0.00" timeLoss="30.85" rerouteNo="0" devices="tripinfo_51" vType="DEFAULT_VEHTYPE" speedFactor="1.10" vaporized=""/>
    <tripinfo id="84" depart="252.00" departLane="38[1][1]a_0" departPos="5.10" departSpeed="0.00" departDelay="0.00" arrival="263.00" arrivalLane="38[1][1]a_0" arrivalPos="96.75" arrivalSpeed="12.96" duration="11.00" routeLength="91.65" waitingTime="0.00" waitingCount="0" stopTime="0.00" timeLoss="3.45" rerouteNo="0" devices="tripinfo_84" vType="DEFAULT_VEHTYPE" speedFactor="0.99" vaporized=""/>
    <tripinfo id="71" depart="213.00" departLane="26_0" departPos="5.10" departSpeed="0.00" departDelay="0.00" arrival="270.00" arrivalLane="21_0" arrivalPos="104.70" arrivalSpeed="13.88" duration="57.00" routeLength="645.78" waitingTime="0.00" waitingCount="0" stopTime="0.00" timeLoss="9.98" rerouteNo="0" devices="tripinfo_71" vType="DEFAULT_VEHTYPE" speedFactor="1.00" vaporized=""/>
    <tripinfo id="25" depart="75.00" departLane="34[1][1]_0" departPos="5.10" departSpeed="0.00" departDelay="0.00" arrival="272.00" arrivalLane="33_0" arrivalPos="184.58" arrivalSpeed="14.09" duration="197.00" routeLength="1420.10" waitingTime="68.00" waitingCount="3" stopTime="0.00" timeLoss="96.04" rerouteNo="0" devices="tripinfo_25" vType="DEFAULT_VEHTYPE" speedFactor="1.02" vaporized=""/>
    <tripinfo id="5" depart="15.00" departLane="16[0]_0" departPos="5.10" departSpeed="0.00" departDelay="0.00" arrival="273.00" arrivalLane="53a_0" arrivalPos="257.00" arrivalSpeed="13.39" duration="258.00" routeLength="2302.00" waitingTime="62.00" waitingCount="3" stopTime="0.00" timeLoss="96.60" rerouteNo="0" devices="tripinfo_5" vType="DEFAULT_VEHTYPE" speedFactor="1.03" vaporized=""/>
    <tripinfo id="48" depart="144.00" departLane="26_0" departPos="5.10" departSpeed="0.00" departDelay="0.00" arrival="274.00" arrivalLane="29[1]_0" arrivalPos="193.50" arrivalSpeed="13.17" duration="130.00" routeLength="862.24" waitingTime="51.00" waitingCount="1" stopTime="0.00" timeLoss="65.32" rerouteNo="0" devices="tripinfo_48" vType="DEFAULT_VEHTYPE" speedFactor="0.97" vaporized=""/>
    <tripinfo id="34" depart="102.00" departLane="54_0" departPos="5.10" departSpeed="0.00" departDelay="0.00" arrival="278.00" arrivalLane="29[0]_0" arrivalPos="133.42" arrivalSpeed="11.17" duration="176.00" routeLength="1427.57" waitingTime="35.00" waitingCount="2" stopTime="0.00" timeLoss="57.36" rerouteNo="0" devices="tripinfo_34" vType="DEFAULT_VEHTYPE" speedFactor="0.87" vaporized=""/>
    <tripinfo id="13" depart="39.00" departLane="2[0]_0" departPos="5.10" departSpeed="0.00" departDelay="0.00" arrival="280.00" arrivalLane="38[0]_0" arrivalPos="64.30" arrivalSpeed="13.65" duration="241.00" routeLength="2190.05" waitingTime="61.00" waitingCount="1" stopTime="0.00" timeLoss="86.61" rerouteNo="0" devices="tripinfo_13" vType="DEFAULT_VEHTYPE" speedFactor="1.03" vaporized=""/>
    <tripinfo id="23" depart="69.00" departLane="65_0" departPos="5.10" departSpeed="0.00" departDelay="0.00" arrival="280.00" arrivalLane="96_0" arrivalPos="219.83" arrivalSpeed="12.35" duration="211.00" routeLength="1435.83" waitingTime="72.00" waitingCount="3" stopTime="0.00" timeLoss="100.00" rerouteNo="0" devices="tripinfo_23" vType="DEFAULT_VEHTYPE" speedFactor="0.94" vaporized=""/>
    <tripinfo id="37" depart="112.00" departLane="39[1][1][0]_0" departPos="5.10" departSpeed="0.00" departDelay="1.00" arrival="286.00" arrivalLane="39[1][0]_0" arrivalPos="83.73" arrivalSpeed="15.46" duration="174.00" routeLength="1251.57" waitingTime="68.00" waitingCount="2" stopTime="0.00" timeLoss="93.93" rerouteNo="0" devices="tripinfo_37" vType="DEFAULT_VEHTYPE" speedFactor="1.13" vaporized=""/>
    <tripinfo id="74" depart="222.00" departLane="56[1][1]_0" departPos="5.10" departSpeed="0.00" departDelay="0.00" arrival="294.00" arrivalLane="67_0" arrivalPos="252.16" arrivalSpeed="12.08" duration="72.00" routeLength="355.84" waitingTime="32.00" waitingCount="1" stopTime="0.00" timeLoss="43.03" rerouteNo="0" devices="tripinfo_74" vType="DEFAULT_VEHTYPE" speedFactor="0.90" vaporized=""/>
    <tripinfo id="7" depart="21.00" departLane="39[1][1][1]_0" departPos="5.10" departSpeed="0.00" departDelay="0.00" arrival="297.00" arrivalLane="96_0" arrivalPos="219.83" arrivalSpeed="10.46" duration="276.00" routeLength="2616.73" waitingTime="24.00" waitingCount="1" stopTime="0.00" timeLoss="48.45" rerouteNo="0" devices="tripinfo_7" vType="DEFAULT_VEHTYPE" speedFactor="0.83" vaporized=""/>
    <tripinfo id="90" depart="270.00" departLane="53_0" departPos="5.10" departSpeed="0.00" departDelay="0.00" arrival="297.00" arrivalLane="53a_0" arrivalPos="257.00" arrivalSpeed="13.87" duration="27.00" routeLength="321.75" waitingTime="0.00" waitingCount="0" stopTime="0.00" timeLoss="4.18" rerouteNo="0" devices="tripinfo_90" vType="DEFAULT_VEHTYPE" speedFactor="1.04" vaporized=""/>
    <tripinfo id="52" depart="156.00" departLane="49[1]_0" departPos="5.10" departSpeed="0.00" departDelay="0.00" arrival="315.00" arrivalLane="30_0" arrivalPos="101.57" arrivalSpeed="12.05" duration="159.00" routeLength="1235.76" waitingTime="45.00" waitingCount="1" stopTime="0.00" timeLoss="59.95" rerouteNo="0" devices="tripinfo_52" vType="DEFAULT_VEHTYPE" speedFactor="0.90" vaporized=""/>
    <tripinfo id="89" depart="267.00" departLane="63[1]_0" departPos="5.10" departSpeed="0.00" departDelay="0.00" arrival="318.00" arrivalLane="28_0" arrivalPos="191.17" arrivalSpeed="12.09" duration="51.00" routeLength="578.43" waitingTime="0.00" waitingCount="0" stopTime="0.00" timeLoss="5.40" rerouteNo="0" devices="tripinfo_89" vType="DEFAULT_VEHTYPE" speedFactor="0.91" vaporized=""/>
    <tripinfo id="75" depart="225.00" departLane="13[0]_0" departPos="5.10" departSpeed="0.00" departDelay="0.00" arrival="333.00" arrivalLane="20+19b_0" arrivalPos="54.80" arrivalSpeed="15.19" duration="108.00" routeLength="660.62" waitingTime="55.00" waitingCount="1" stopTime="0.00" timeLoss="65.47" rerouteNo="0" devices="tripinfo_75" vType="DEFAULT_VEHTYPE" speedFactor="1.14" vaporized=""/>
    <tripinfo id="42" depart="126.00" departLane="13[0]_0" departPos="5.10" departSpeed="0.00" departDelay="0.00" arrival="337.00" arrivalLane="98_0" arrivalPos="201.99" arrivalSpeed="13.72" duration="211.00" routeLength="1950.35" waitingTime="42.00" waitingCount="2" stopTime="0.00" timeLoss="70.60" rerouteNo="0" devices="tripinfo_42" vType="DEFAULT_VEHTYPE" speedFactor="1.01" vaporized=""/>
    <tripinfo id="105" depart="315.00" departLane="15_0" departPos="5.10" departSpeed="0.00" departDelay="0.00" arrival="341.00" arrivalLane="15_0" arrivalPos="321.76" arrivalSpeed="14.82" duration="26.00" routeLength="316.66" waitingTime="0.00" waitingCount="0" stopTime="0.00" timeLoss="4.17" rerouteNo="0" devices="tripinfo_105" vType="DEFAULT_VEHTYPE" speedFactor="1.09" vaporized=""/>
    <tripinfo id="32" depart="96.00" departLane="56[1][1]_0" departPos="5.10" departSpeed="0.00" departDelay="0.00" arrival="343.00" arrivalLane="28_0" arrivalPos="191.17" arrivalSpeed="11.41" duration="247.00" routeLength="1493.69" waitingTime="102.00" waitingCount="2" stopTime="0.00" timeLoss="125.25" rerouteNo="0" devices="tripinfo_32" vType="DEFAULT_VEHTYPE" speedFactor="0.89" vaporized=""/>
    <tripinfo id="69" depart="207.00" departLane="2[0]_0" departPos="5.10" departSpeed="0.00" departDelay="0.00" arrival="350.00" arrivalLane="a1[1]_2" arrivalPos="1.92" arrivalSpeed="13.65" duration="143.00" routeLength="1597.48" waitingTime="7.00" waitingCount="1" stopTime="0.00" timeLoss="29.66" rerouteNo="0" devices="tripinfo_69" vType="DEFAULT_VEHTYPE" speedFactor="1.02" vaporized=""/>
    <tripinfo id="50" depart="150.00" departLane="28_0" departPos="5.10" departSpeed="0.00" departDelay="0.00" arrival="351.00" arrivalLane="40[1]_0" arrivalPos="499.82" arrivalSpeed="16.11" duration="201.00" routeLength="2053.66" waitingTime="43.00" waitingCount="3" stopTime="0.00" timeLoss="75.29" rerouteNo="0" devices="tripinfo_50" vType="DEFAULT_VEHTYPE" speedFactor="1.18" vaporized=""/>
    <tripinfo id="57" depart="171.00" departLane="52_0" departPos="5.10" departSpeed="0.00" departDelay="0.00" arrival="352.00" arrivalLane="2[1][0]_0" arrivalPos="289.38" arrivalSpeed="13.86" duration="181.00" routeLength="1610.96" waitingTime="47.00" waitingCount="2" stopTime="0.00" timeLoss="68.34" rerouteNo="0" devices="tripinfo_57" vType="DEFAULT_VEHTYPE" speedFactor="1.04" vaporized=""/>
    <tripinfo id="79" depart="237.00" departLane="23_0" departPos="5.10" departSpeed="0.00" departDelay="0.00" arrival="354.00" arrivalLane="28a_0" arrivalPos="133.42" arrivalSpeed="12.93" duration="117.00" routeLength="1074.96" waitingTime="15.00" waitingCount="1" stopTime="0.00" timeLoss="41.27" rerouteNo="0" devices="tripinfo_79" vType="DEFAULT_VEHTYPE" speedFactor="1.02" vaporized=""/>
    <tripinfo id="20" depart="60.00" departLane="34[1][1]_0" departPos="5.10" departSpeed="0.00" departDelay="0.00" arrival="356.00" arrivalLane="38[1][0]_0" arrivalPos="201.49" arrivalSpeed="12.18" duration="296.00" routeLength="2239.56" waitingTime="91.00" waitingCount="3" stopTime="0.00" timeLoss="123.99" rerouteNo="0" devices="tripinfo_20" vType="DEFAULT_VEHTYPE" speedFactor="0.94" vaporized=""/>
    <tripinfo id="80" depart="243.00" departLane="11[1][1]_0" departPos="5.10" departSpeed="0.00" departDelay="3.00" arrival="358.00" arrivalLane="46_0" arrivalPos="215.04" arrivalSpeed="12.39" duration="115.00" routeLength="998.79" waitingTime="17.00" waitingCount="2" stopTime="0.00" timeLoss="40.38" rerouteNo="0" devices="tripinfo_80" vType="DEFAULT_VEHTYPE" speedFactor="0.97" vaporized=""/>
    <tripinfo id="62" depart="186.00" departLane="48_0" departPos="5.10" departSpeed="0.00" departDelay="0.00" arrival="359.00" arrivalLane="30_0" arrivalPos="101.57" arrivalSpeed="11.48" duration="173.00" routeLength="1313.16" waitingTime="49.00" waitingCount="2" stopTime="0.00" timeLoss="67.90" rerouteNo="0" devices="tripinfo_62" vType="DEFAULT_VEHTYPE" speedFactor="0.90" vaporized=""/>
    <tripinfo id="65" depart="195.00" departLane="34[1][1]_0" departPos="5.10" departSpeed="0.00" departDelay="0.00" arrival="364.00" arrivalLane="33_0" arrivalPos="184.58" arrivalSpeed="10.66" duration="169.00" routeLength="1420.10" waitingTime="19.00" waitingCount="3" stopTime="0.00" timeLoss="48.33" rerouteNo="0" devices="tripinfo_65" vType="DEFAULT_VEHTYPE" speedFactor="0.85" vaporized=""/>
    <tripinfo id="73" depart="219.00" departLane="11[1][1]_0" departPos="5.10" departSpeed="0.00" departDelay="0.00" arrival="369.00" arrivalLane="39[1][0]_0" arrivalPos="83.73" arrivalSpeed="12.90" duration="150.00" routeLength="1168.18" waitingTime="40.00" waitingCount="2" stopTime="0.00" timeLoss="65.40" rerouteNo="0" devices="tripinfo_73" vType="DEFAULT_VEHTYPE" speedFactor="1.00" vaporized=""/>
    <tripinfo id="54" depart="162.00" departLane="96_0" departPos="5.10" departSpeed="0.00" departDelay="0.00" arrival="375.00" arrivalLane="2[1][1][0]_0" arrivalPos="2.54" arrivalSpeed="12.82" duration="213.00" routeLength="1719.40" waitingTime="50.00" waitingCount="3" stopTime="0.00" timeLoss="82.87" rerouteNo="0" devices="tripinfo_54" vType="DEFAULT_VEHTYPE" speedFactor="0.96" vaporized=""/>
    <tripinfo id="44" depart="132.00" departLane="2[0]_0" departPos="5.10" departSpeed="0.00" departDelay="0.00" arrival="380.00" arrivalLane="40[0]_0" arrivalPos="209.77" arrivalSpeed="12.71" duration="248.00" routeLength="2331.78" waitingTime="60.00" waitingCount="1" stopTime="0.00" timeLoss="79.12" rerouteNo="0" devices="tripinfo_44" vType="DEFAULT_VEHTYPE" speedFactor="0.99" vaporized=""/>
    <tripinfo id="81" depart="243.00" departLane="34[1][2]_0" departPos="5.10" departSpeed="0.00" departDelay="0.00" arrival="381.00" arrivalLane="55_0" arrivalPos="98.64" arrivalSpeed="14.78" duration="138.00" routeLength="1006.29" waitingTime="53.00" waitingCount="1" stopTime="0.00" timeLoss="70.56" rerouteNo="0" devices="tripinfo_81" vType="DEFAULT_VEHTYPE" speedFactor="1.08" vaporized=""/>
    <tripinfo id="55" depart="165.00" departLane="51_0" departPos="5.10" departSpeed="0.00" departDelay="0.00" arrival="383.00" arrivalLane="33_0" arrivalPos="184.58" arrivalSpeed="14.99" duration="218.00" routeLength="879.96" waitingTime="134.00" waitingCount="3" stopTime="0.00" timeLoss="159.35" rerouteNo="0" devices="tripinfo_55" vType="DEFAULT_VEHTYPE" speedFactor="1.09" vaporized=""/>
    <tripinfo id="97" depart="291.00" departLane="53_0" departPos="5.10" departSpeed="0.00" departDelay="0.00" arrival="395.00" arrivalLane="39[1][1][0]_0" arrivalPos="201.49" arrivalSpeed="12.35" duration="104.00" routeLength="768.88" waitingTime="25.00" waitingCount="2" stopTime="0.00" timeLoss="44.55" rerouteNo="0" devices="tripinfo_97" vType="DEFAULT_VEHTYPE" speedFactor="0.94" vaporized=""/>
    <tripinfo id="38" depart="117.00" departLane="24_0" departPos="5.10" departSpeed="0.00" departDelay="3.00" arrival="396.00" arrivalLane="55_0" arrivalPos="98.64" arrivalSpeed="12.25" duration="279.00" routeLength="2156.19" waitingTime="72.00" waitingCount="4" stopTime="0.00" timeLoss="111.69" rerouteNo="0" devices="tripinfo_38" vType="DEFAULT_VEHTYPE" speedFactor="0.93" vaporized=""/>
    <tripinfo id="61" depart="183.00" departLane="26_0" departPos="5.10" departSpeed="0.00" departDelay="0.00" arrival="406.00" arrivalLane="48_0" arrivalPos="108.86" arrivalSpeed="12.90" duration="223.00" routeLength="1547.65" waitingTime="84.00" waitingCount="2" stopTime="0.00" timeLoss="110.37" rerouteNo="0" devices="tripinfo_61" vType="DEFAULT_VEHTYPE" speedFactor="1.00" vaporized=""/>
    <tripinfo id="68" depart="204.00" departLane="15_0" departPos="5.10" departSpeed="0.00" departDelay="0.00" arrival="410.00" arrivalLane="39[1][0]_0" arrivalPos="83.73" arrivalSpeed="15.72" duration="206.00" routeLength="1948.93" waitingTime="59.00" waitingCount="1" stopTime="0.00" timeLoss="85.92" rerouteNo="0" devices="tripinfo_68" vType="DEFAULT_VEHTYPE" speedFactor="1.17" vaporized=""/>
    <tripinfo id="108" depart="324.00" departLane="24_0" departPos="5.10" departSpeed="0.00" departDelay="0.00" arrival="413.00" arrivalLane="17[1]_0" arrivalPos="192.01" arrivalSpeed="4.94" duration="89.00" routeLength="633.15" waitingTime="27.00" waitingCount="2" stopTime="0.00" timeLoss="43.24" rerouteNo="0" devices="tripinfo_108" vType="DEFAULT_VEHTYPE" speedFactor="1.00" vaporized=""/>
    <tripinfo id="104" depart="312.00" departLane="54_0" departPos="5.10" departSpeed="0.00" departDelay="0.00" arrival="421.00" arrivalLane="39[1][0]_0" arrivalPos="83.73" arrivalSpeed="13.61" duration="109.00" routeLength="936.45" waitingTime="24.00" waitingCount="1" stopTime="0.00" timeLoss="41.87" rerouteNo="0" devices="tripinfo_104" vType="DEFAULT_VEHTYPE" speedFactor="1.01" vaporized=""/>
    <tripinfo id="59" depart="177.00" departLane="26_0" departPos="5.10" departSpeed="0.00" departDelay="0.00" arrival="434.00" arrivalLane="39[1][1][1]_0" arrivalPos="70.78" arrivalSpeed="14.34" duration="257.00" routeLength="1696.63" waitingTime="98.00" waitingCount="4" stopTime="0.00" timeLoss="139.14" rerouteNo="0" devices="tripinfo_59" vType="DEFAULT_VEHTYPE" speedFactor="1.04" vaporized=""/>
    <tripinfo id="86" depart="258.00" departLane="22[0]_0" departPos="5.10" departSpeed="0.00" departDelay="0.00" arrival="434.00" arrivalLane="18_0" arrivalPos="149.84" arrivalSpeed="11.25" duration="176.00" routeLength="1269.51" waitingTime="51.00" waitingCount="2" stopTime="0.00" timeLoss="71.89" rerouteNo="0" devices="tripinfo_86" vType="DEFAULT_VEHTYPE" speedFactor="0.88" vaporized=""/>
    <tripinfo id="87" depart="261.00" departLane="46_0" departPos="5.10" departSpeed="0.00" departDelay="0.00" arrival="445.00" arrivalLane="a1[1]_2" arrivalPos="1.92" arrivalSpeed="12.34" duration="184.00" routeLength="1449.95" waitingTime="47.00" waitingCount="2" stopTime="0.00" timeLoss="67.95" rerouteNo="0" devices="tripinfo_87" vType="DEFAULT_VEHTYPE" speedFactor="0.91" vaporized=""/>
    <tripinfo id="82" depart="246.00" departLane="67_0" departPos="5.10" departSpeed="0.00" departDelay="0.00" arrival="449.00" arrivalLane="38[1][0]_0" arrivalPos="201.49" arrivalSpeed="14.54" duration="203.00" routeLength="1440.44" waitingTime="68.00" waitingCount="3" stopTime="0.00" timeLoss="109.84" rerouteNo="0" devices="tripinfo_82" vType="DEFAULT_VEHTYPE" speedFactor="1.12" vaporized=""/>
    <tripinfo id="100" depart="300.00" departLane="98_0" departPos="5.10" departSpeed="0.00" departDelay="0.00" arrival="449.00" arrivalLane="38[1][1]_0" arrivalPos="83.73" arrivalSpeed="12.17" duration="149.00" routeLength="922.95" waitingTime="64.00" waitingCount="1" stopTime="0.00" timeLoss="78.89" rerouteNo="0" devices="tripinfo_100" vType="DEFAULT_VEHTYPE" speedFactor="0.96" vaporized=""/>
    <tripinfo id="132" depart="396.00" departLane="17[1]_0" departPos="5.10" departSpeed="0.00" departDelay="0.00" arrival="453.00" arrivalLane="16[0]_0" arrivalPos="192.01" arrivalSpeed="11.86" duration="57.00" routeLength="593.70" waitingTime="0.00" waitingCount="0" stopTime="0.00" timeLoss="8.48" rerouteNo="0" devices="tripinfo_132" vType="DEFAULT_VEHTYPE" speedFactor="0.89" vaporized=""/>
    <tripinfo id="102" depart="306.00" departLane="39[1][0]_0" departPos="5.10" departSpeed="0.00" departDelay="0.00" arrival="459.00" arrivalLane="70_0" arrivalPos="62.95" arrivalSpeed="13.93" duration="153.00" routeLength="1143.83" waitingTime="56.00" waitingCount="1" stopTime="0.00" timeLoss="72.70" rerouteNo="0" devices="tripinfo_102" vType="DEFAULT_VEHTYPE" speedFactor="1.03" vaporized=""/>
    <tripinfo id="101" depart="303.00" departLane="11[0]_0" departPos="5.10" departSpeed="0.00" departDelay="0.00" arrival="461.00" arrivalLane="49[0]_0" arrivalPos="190.09" arrivalSpeed="13.38" duration="158.00" routeLength="1315.86" waitingTime="30.00" waitingCount="3" stopTime="0.00" timeLoss="61.14" rerouteNo="0" devices="tripinfo_101" vType="DEFAULT_VEHTYPE" speedFactor="0.98" vaporized=""/>
    <tripinfo id="85" depart="255.00" departLane="13[0]_0" departPos="5.10" departSpeed="0.00" departDelay="0.00" arrival="463.00" arrivalLane="44_0" arrivalPos="125.60" arrivalSpeed="12.17" duration="208.00" routeLength="1315.16" waitingTime="88.00" waitingCount="2" stopTime="0.00" timeLoss="106.40" rerouteNo="0" devices="tripinfo_85" vType="DEFAULT_VEHTYPE" speedFactor="0.94" vaporized=""/>